time
               0      0.000000000000000
number of elements
              48
max interpo per element
            6859
number of nodes
             384
max nodes per element and basis per nodes
               8               1
number of atoms
               0
 masses: 
   63.545999999999999     
boundary 
ppp
box bound
     -1.106863177520149    167.136339805542462     -0.639047753497342     96.496210778098700     -1.565340917340373    236.366478518396292
box matrix
    168.243202983062616      0.000000000000000      0.000000000000000
      0.000000000000000     97.135258531596037      0.000000000000000
      0.000000000000000      0.000000000000000    237.931819435736656
coarse-grained domain
ie basis_num ng_node esize
ip ibasis type x y z
               1               1               2              18
               1               1               1    166.767385413035754      0.000000000000000    198.276516196447261
               2               1               1    153.485027282793965     23.005719125904321    235.844698212616237
               3               1               1    153.485027282793993     69.017157377712977    235.844698212616237
               4               1               1    166.767385413035754     46.011438251808649    198.276516196447261
               5               1               1    126.920311022310386     23.005719125904321    198.276516196447261
               6               1               1    113.637952892068611     46.011438251808649    235.844698212616237
               7               1               1    113.637952892068611     92.022876503617312    235.844698212616237
               8               1               1    126.920311022310386     69.017157377712977    198.276516196447290
               2               1               2              18
               9               1               1    194.807919243546166      0.000000000000014    118.965909717868371
              10               1               1    181.525561113304406     23.005719125904335    156.534091734037304
              11               1               1    181.525561113304406     69.017157377712962    156.534091734037304
              12               1               1    194.807919243546195     46.011438251808649    118.965909717868371
              13               1               1    154.960844852820856     23.005719125904321    118.965909717868371
              14               1               1    141.678486722579038     46.011438251808649    156.534091734037304
              15               1               1    141.678486722579038     92.022876503617297    156.534091734037304
              16               1               1    154.960844852820856     69.017157377712977    118.965909717868371
               3               1               2              18
              17               1               1    180.787652328290960    -72.851443898697013    158.621212957157809
              18               1               1    167.505294198049199    -49.845724772792693    196.189394973326756
              19               1               1    167.505294198049199     -3.834286520984060    196.189394973326756
              20               1               1    180.787652328290960    -26.840005646888390    158.621212957157809
              21               1               1    140.940577937565621    -49.845724772792707    158.621212957157809
              22               1               1    127.658219807323817    -26.840005646888390    196.189394973326756
              23               1               1    127.658219807323817     19.171432604920273    196.189394973326756
              24               1               1    140.940577937565621     -3.834286520984060    158.621212957157809
               4               1               2              18
              25               1               1    166.767385413035754    -48.567629265798011    198.276516196447261
              26               1               1    153.485027282793965    -25.561910139893694    235.844698212616237
              27               1               1    153.485027282793965     20.449528111914940    235.844698212616237
              28               1               1    166.767385413035754     -2.556191013989390    198.276516196447261
              29               1               1    126.920311022310386    -25.561910139893708    198.276516196447261
              30               1               1    113.637952892068611     -2.556191013989390    235.844698212616237
              31               1               1    113.637952892068611     43.455247237819272    235.844698212616237
              32               1               1    126.920311022310386     20.449528111914940    198.276516196447261
               5               1               2              18
              33               1               1     54.605250090993991      0.000000000000014     39.655303239289452
              34               1               1     41.322891960752230     23.005719125904321     77.223485255458414
              35               1               1     41.322891960752230     69.017157377712962     77.223485255458414
              36               1               1     54.605250090993991     46.011438251808649     39.655303239289459
              37               1               1     14.758175700268680     23.005719125904321     39.655303239289452
              38               1               1      1.475817570026862     46.011438251808649     77.223485255458414
              39               1               1      1.475817570026862     92.022876503617297     77.223485255458414
              40               1               1     14.758175700268652     69.017157377712977     39.655303239289445
               6               1               2              18
              41               1               1    208.828186158801429    -72.851443898697028     79.310606478578919
              42               1               1    195.545828028559612    -49.845724772792693    116.878788494747880
              43               1               1    195.545828028559583     -3.834286520984060    116.878788494747880
              44               1               1    208.828186158801429    -26.840005646888379     79.310606478578919
              45               1               1    168.981111768076033    -49.845724772792707     79.310606478578919
              46               1               1    155.698753637834272    -26.840005646888379    116.878788494747880
              47               1               1    155.698753637834272     19.171432604920273    116.878788494747852
              48               1               1    168.981111768076033     -3.834286520984047     79.310606478578904
               7               1               2              18
              49               1               1    194.807919243546195    -48.567629265798011    118.965909717868371
              50               1               1    181.525561113304406    -25.561910139893694    156.534091734037304
              51               1               1    181.525561113304406     20.449528111914955    156.534091734037304
              52               1               1    194.807919243546166     -2.556191013989377    118.965909717868371
              53               1               1    154.960844852820856    -25.561910139893694    118.965909717868371
              54               1               1    141.678486722579066     -2.556191013989377    156.534091734037304
              55               1               1    141.678486722579066     43.455247237819286    156.534091734037304
              56               1               1    154.960844852820856     20.449528111914955    118.965909717868371
               8               1               2              18
              57               1               1    180.787652328290960    -24.283814632899013    158.621212957157809
              58               1               1    167.505294198049199     -1.278095506994695    196.189394973326756
              59               1               1    167.505294198049199     44.733342744813953    196.189394973326785
              60               1               1    180.787652328290960     21.727623618909622    158.621212957157809
              61               1               1    140.940577937565621     -1.278095506994695    158.621212957157809
              62               1               1    127.658219807323817     21.727623618909622    196.189394973326756
              63               1               1    127.658219807323817     67.739061870718288    196.189394973326756
              64               1               1    140.940577937565621     44.733342744813953    158.621212957157809
               9               1               2              18
              65               1               1     68.625517006249254    -72.851443898697028      0.000000000000000
              66               1               1     55.343158876007436    -49.845724772792693     37.568182016168961
              67               1               1     55.343158876007465     -3.834286520984060     37.568182016168961
              68               1               1     68.625517006249254    -26.840005646888379      0.000000000000013
              69               1               1     28.778442615523886    -49.845724772792700      0.000000000000000
              70               1               1     15.496084485282097    -26.840005646888379     37.568182016168961
              71               1               1     15.496084485282068     19.171432604920259     37.568182016168961
              72               1               1     28.778442615523858     -3.834286520984060      0.000000000000006
              10               1               2              18
              73               1               1     54.605250090993991    -48.567629265798011     39.655303239289452
              74               1               1     41.322891960752230    -25.561910139893683     77.223485255458399
              75               1               1     41.322891960752230     20.449528111914955     77.223485255458399
              76               1               1     54.605250090993991     -2.556191013989364     39.655303239289452
              77               1               1     14.758175700268652    -25.561910139893694     39.655303239289452
              78               1               1      1.475817570026891     -2.556191013989364     77.223485255458414
              79               1               1      1.475817570026862     43.455247237819272     77.223485255458414
              80               1               1     14.758175700268652     20.449528111914955     39.655303239289452
              11               1               2              18
              81               1               1    208.828186158801429    -24.283814632899002     79.310606478578919
              82               1               1    195.545828028559612     -1.278095506994682    116.878788494747880
              83               1               1    195.545828028559640     44.733342744813967    116.878788494747880
              84               1               1    208.828186158801429     21.727623618909636     79.310606478578919
              85               1               1    168.981111768076033     -1.278095506994682     79.310606478578919
              86               1               1    155.698753637834272     21.727623618909636    116.878788494747880
              87               1               1    155.698753637834272     67.739061870718288    116.878788494747880
              88               1               1    168.981111768076033     44.733342744813953     79.310606478578919
              12               1               2              18
              89               1               1     68.625517006249254    -24.283814632899013      0.000000000000013
              90               1               1     55.343158876007436     -1.278095506994682     37.568182016168961
              91               1               1     55.343158876007465     44.733342744813960     37.568182016168961
              92               1               1     68.625517006249254     21.727623618909643      0.000000000000006
              93               1               1     28.778442615523886     -1.278095506994689      0.000000000000006
              94               1               1     15.496084485282068     21.727623618909643     37.568182016168961
              95               1               1     15.496084485282068     67.739061870718288     37.568182016168954
              96               1               1     28.778442615523886     44.733342744813967      0.000000000000003
              13               1               2              18
              97               1               1    138.726851582525313      0.000000000000014    158.621212957157809
              98               1               1    125.444493452283538     23.005719125904335    196.189394973326756
              99               1               1    125.444493452283538     69.017157377712962    196.189394973326756
             100               1               1    138.726851582525313     46.011438251808649    158.621212957157809
             101               1               1     98.879777191799960     23.005719125904321    158.621212957157809
             102               1               1     85.597419061558170     46.011438251808649    196.189394973326756
             103               1               1     85.597419061558156     92.022876503617297    196.189394973326756
             104               1               1     98.879777191799960     69.017157377712977    158.621212957157809
              14               1               2              18
             105               1               1    124.706584667270107    -72.851443898697013    198.276516196447261
             106               1               1    111.424226537028304    -49.845724772792693    235.844698212616237
             107               1               1    111.424226537028304     -3.834286520984060    235.844698212616237
             108               1               1    124.706584667270107    -26.840005646888390    198.276516196447261
             109               1               1     84.859510276544739    -49.845724772792707    198.276516196447261
             110               1               1     71.577152146302964    -26.840005646888390    235.844698212616237
             111               1               1     71.577152146302964     19.171432604920273    235.844698212616237
             112               1               1     84.859510276544739     -3.834286520984060    198.276516196447261
              15               1               2              18
             113               1               1    166.767385413035754      0.000000000000014     79.310606478578919
             114               1               1    153.485027282793965     23.005719125904321    116.878788494747880
             115               1               1    153.485027282793993     69.017157377712962    116.878788494747880
             116               1               1    166.767385413035754     46.011438251808649     79.310606478578919
             117               1               1    126.920311022310386     23.005719125904321     79.310606478578919
             118               1               1    113.637952892068611     46.011438251808649    116.878788494747880
             119               1               1    113.637952892068611     92.022876503617297    116.878788494747880
             120               1               1    126.920311022310386     69.017157377712977     79.310606478578904
              16               1               2              18
             121               1               1    152.747118497780548    -72.851443898697028    118.965909717868371
             122               1               1    139.464760367538730    -49.845724772792693    156.534091734037304
             123               1               1    139.464760367538730     -3.834286520984060    156.534091734037304
             124               1               1    152.747118497780548    -26.840005646888379    118.965909717868371
             125               1               1    112.900044107055180    -49.845724772792707    118.965909717868371
             126               1               1     99.617685976813391    -26.840005646888379    156.534091734037304
             127               1               1     99.617685976813391     19.171432604920273    156.534091734037304
             128               1               1    112.900044107055180     -3.834286520984047    118.965909717868371
              17               1               2              18
             129               1               1    138.726851582525313    -48.567629265798011    158.621212957157837
             130               1               1    125.444493452283538    -25.561910139893694    196.189394973326785
             131               1               1    125.444493452283538     20.449528111914955    196.189394973326785
             132               1               1    138.726851582525313     -2.556191013989377    158.621212957157837
             133               1               1     98.879777191799960    -25.561910139893694    158.621212957157837
             134               1               1     85.597419061558185     -2.556191013989377    196.189394973326785
             135               1               1     85.597419061558185     43.455247237819286    196.189394973326756
             136               1               1     98.879777191799960     20.449528111914955    158.621212957157809
              18               1               2              18
             137               1               1    124.706584667270107    -24.283814632899013    198.276516196447261
             138               1               1    111.424226537028304     -1.278095506994695    235.844698212616237
             139               1               1    111.424226537028304     44.733342744813953    235.844698212616237
             140               1               1    124.706584667270107     21.727623618909622    198.276516196447261
             141               1               1     84.859510276544739     -1.278095506994695    198.276516196447261
             142               1               1     71.577152146302964     21.727623618909622    235.844698212616237
             143               1               1     71.577152146302964     67.739061870718288    235.844698212616237
             144               1               1     84.859510276544739     44.733342744813953    198.276516196447233
              19               1               2              18
             145               1               1    194.807919243546166      0.000000000000014      0.000000000000000
             146               1               1    181.525561113304406     23.005719125904335     37.568182016168954
             147               1               1    181.525561113304406     69.017157377712977     37.568182016168954
             148               1               1    194.807919243546195     46.011438251808656      0.000000000000000
             149               1               1    154.960844852820856     23.005719125904321      0.000000000000000
             150               1               1    141.678486722579038     46.011438251808656     37.568182016168961
             151               1               1    141.678486722579038     92.022876503617297     37.568182016168961
             152               1               1    154.960844852820827     69.017157377712977      0.000000000000000
              20               1               2              18
             153               1               1    180.787652328290960    -72.851443898697028     39.655303239289452
             154               1               1    167.505294198049199    -49.845724772792693     77.223485255458414
             155               1               1    167.505294198049199     -3.834286520984060     77.223485255458414
             156               1               1    180.787652328290960    -26.840005646888379     39.655303239289459
             157               1               1    140.940577937565621    -49.845724772792700     39.655303239289452
             158               1               1    127.658219807323846    -26.840005646888379     77.223485255458414
             159               1               1    127.658219807323817     19.171432604920259     77.223485255458414
             160               1               1    140.940577937565621     -3.834286520984060     39.655303239289459
              21               1               2              18
             161               1               1    166.767385413035754    -48.567629265798011     79.310606478578904
             162               1               1    153.485027282793965    -25.561910139893683    116.878788494747852
             163               1               1    153.485027282793965     20.449528111914955    116.878788494747852
             164               1               1    166.767385413035754     -2.556191013989364     79.310606478578904
             165               1               1    126.920311022310386    -25.561910139893694     79.310606478578904
             166               1               1    113.637952892068611     -2.556191013989364    116.878788494747880
             167               1               1    113.637952892068611     43.455247237819272    116.878788494747880
             168               1               1    126.920311022310386     20.449528111914955     79.310606478578904
              22               1               2              18
             169               1               1    152.747118497780548    -24.283814632899002    118.965909717868371
             170               1               1    139.464760367538730     -1.278095506994682    156.534091734037304
             171               1               1    139.464760367538759     44.733342744813967    156.534091734037304
             172               1               1    152.747118497780548     21.727623618909636    118.965909717868371
             173               1               1    112.900044107055194     -1.278095506994682    118.965909717868371
             174               1               1     99.617685976813391     21.727623618909636    156.534091734037304
             175               1               1     99.617685976813391     67.739061870718288    156.534091734037304
             176               1               1    112.900044107055194     44.733342744813953    118.965909717868371
              23               1               2              18
             177               1               1    194.807919243546166    -48.567629265798018      0.000000000000000
             178               1               1    181.525561113304406    -25.561910139893694     37.568182016168961
             179               1               1    181.525561113304406     20.449528111914947     37.568182016168961
             180               1               1    194.807919243546195     -2.556191013989371      0.000000000000000
             181               1               1    154.960844852820856    -25.561910139893694     -0.000000000000006
             182               1               1    141.678486722579038     -2.556191013989371     37.568182016168961
             183               1               1    141.678486722579038     43.455247237819272     37.568182016168961
             184               1               1    154.960844852820856     20.449528111914955     -0.000000000000003
              24               1               2              18
             185               1               1    180.787652328290960    -24.283814632899013     39.655303239289466
             186               1               1    167.505294198049199     -1.278095506994682     77.223485255458414
             187               1               1    167.505294198049171     44.733342744813960     77.223485255458414
             188               1               1    180.787652328290960     21.727623618909643     39.655303239289459
             189               1               1    140.940577937565621     -1.278095506994689     39.655303239289459
             190               1               1    127.658219807323817     21.727623618909643     77.223485255458414
             191               1               1    127.658219807323846     67.739061870718288     77.223485255458399
             192               1               1    140.940577937565621     44.733342744813967     39.655303239289452
              25               1               2              18
             193               1               1    110.686317752014887      0.000000000000014    118.965909717868371
             194               1               1     97.403959621773097     23.005719125904321    156.534091734037304
             195               1               1     97.403959621773097     69.017157377712962    156.534091734037304
             196               1               1    110.686317752014887     46.011438251808649    118.965909717868371
             197               1               1     70.839243361289519     23.005719125904321    118.965909717868371
             198               1               1     57.556885231047737     46.011438251808649    156.534091734037304
             199               1               1     57.556885231047737     92.022876503617297    156.534091734037304
             200               1               1     70.839243361289519     69.017157377712977    118.965909717868371
              26               1               2              18
             201               1               1     96.666050836759652    -72.851443898697028    158.621212957157809
             202               1               1     83.383692706517877    -49.845724772792693    196.189394973326756
             203               1               1     83.383692706517877     -3.834286520984060    196.189394973326756
             204               1               1     96.666050836759652    -26.840005646888379    158.621212957157809
             205               1               1     56.818976446034306    -49.845724772792707    158.621212957157809
             206               1               1     43.536618315792524    -26.840005646888379    196.189394973326785
             207               1               1     43.536618315792516     19.171432604920273    196.189394973326756
             208               1               1     56.818976446034306     -3.834286520984047    158.621212957157809
              27               1               2              18
             209               1               1     82.645783921504460    -48.567629265798011    198.276516196447290
             210               1               1     69.363425791262671    -25.561910139893694    235.844698212616237
             211               1               1     69.363425791262671     20.449528111914955    235.844698212616237
             212               1               1     82.645783921504460     -2.556191013989377    198.276516196447290
             213               1               1     42.798709530779092    -25.561910139893694    198.276516196447290
             214               1               1     29.516351400537307     -2.556191013989377    235.844698212616237
             215               1               1     29.516351400537307     43.455247237819286    235.844698212616180
             216               1               1     42.798709530779092     20.449528111914955    198.276516196447233
              28               1               2              18
             217               1               1    138.726851582525313      0.000000000000014     39.655303239289452
             218               1               1    125.444493452283538     23.005719125904335     77.223485255458414
             219               1               1    125.444493452283538     69.017157377712977     77.223485255458414
             220               1               1    138.726851582525313     46.011438251808656     39.655303239289459
             221               1               1     98.879777191799960     23.005719125904321     39.655303239289452
             222               1               1     85.597419061558170     46.011438251808656     77.223485255458414
             223               1               1     85.597419061558156     92.022876503617297     77.223485255458414
             224               1               1     98.879777191799960     69.017157377712977     39.655303239289459
              29               1               2              18
             225               1               1    124.706584667270107    -72.851443898697028     79.310606478578904
             226               1               1    111.424226537028304    -49.845724772792693    116.878788494747852
             227               1               1    111.424226537028304     -3.834286520984060    116.878788494747880
             228               1               1    124.706584667270107    -26.840005646888379     79.310606478578904
             229               1               1     84.859510276544739    -49.845724772792700     79.310606478578904
             230               1               1     71.577152146302964    -26.840005646888379    116.878788494747880
             231               1               1     71.577152146302964     19.171432604920259    116.878788494747880