time
               0      0.000000000000000
number of elements
              63
max interpo per element
             729
number of nodes
             504
max nodes per element and basis per nodes
               8               1
number of atoms
           32805
 masses: 
   63.545999999999999     
boundary 
ppp
box bound
     -0.903750000000000     96.701250000000002     -0.903750000000000     96.701250000000002     -0.903750000000000     96.701250000000002
box matrix
     97.605000000000004      0.000000000000000      0.000000000000000
      0.000000000000000     97.605000000000004      0.000000000000000
      0.000000000000000      0.000000000000000     97.605000000000004
coarse-grained domain
ie basis_num ng_node esize
ip ibasis type x y z
               1               1               2               8
               1               1               1      0.000000000000000     65.070000000000007      0.000000000000000
               2               1               1     14.460000000000001     79.530000000000001      0.000000000000000
               3               1               1     14.460000000000001     93.990000000000009     14.460000000000001
               4               1               1      0.000000000000000     79.530000000000001     14.460000000000001
               5               1               1     14.460000000000001     65.070000000000007     14.460000000000001
               6               1               1     28.920000000000002     79.530000000000001     14.460000000000001
               7               1               1     28.920000000000002     93.990000000000009     28.920000000000002
               8               1               1     14.460000000000001     79.530000000000001     28.920000000000002
               2               1               2               8
               9               1               1      0.000000000000000     32.535000000000004      0.000000000000000
              10               1               1     14.460000000000001     46.995000000000005      0.000000000000000
              11               1               1     14.460000000000001     61.455000000000005     14.460000000000001
              12               1               1      0.000000000000000     46.995000000000005     14.460000000000001
              13               1               1     14.460000000000001     32.535000000000004     14.460000000000001
              14               1               1     28.920000000000002     46.995000000000005     14.460000000000001
              15               1               1     28.920000000000002     61.455000000000005     28.920000000000002
              16               1               1     14.460000000000001     46.995000000000005     28.920000000000002
               3               1               2               8
              17               1               1     16.267500000000002     48.802500000000002      0.000000000000000
              18               1               1     30.727500000000003     63.262500000000003      0.000000000000000
              19               1               1     30.727500000000003     77.722500000000011     14.460000000000001
              20               1               1     16.267500000000002     63.262500000000003     14.460000000000001
              21               1               1     30.727500000000003     48.802500000000002     14.460000000000001
              22               1               1     45.187500000000000     63.262500000000003     14.460000000000001
              23               1               1     45.187500000000000     77.722500000000011     28.920000000000002
              24               1               1     30.727500000000003     63.262500000000003     28.920000000000002
               4               1               2               8
              25               1               1     32.535000000000004     65.070000000000007      0.000000000000000
              26               1               1     46.995000000000005     79.530000000000001      0.000000000000000
              27               1               1     46.995000000000005     93.990000000000009     14.460000000000001
              28               1               1     32.535000000000004     79.530000000000001     14.460000000000001
              29               1               1     46.995000000000005     65.070000000000007     14.460000000000001
              30               1               1     61.455000000000005     79.530000000000001     14.460000000000001
              31               1               1     61.455000000000005     93.990000000000009     28.920000000000002
              32               1               1     46.995000000000005     79.530000000000001     28.920000000000002
               5               1               2               8
              33               1               1      0.000000000000000     48.802500000000002     16.267500000000002
              34               1               1     14.460000000000001     63.262500000000003     16.267500000000002
              35               1               1     14.460000000000001     77.722500000000011     30.727500000000003
              36               1               1      0.000000000000000     63.262500000000003     30.727500000000003
              37               1               1     14.460000000000001     48.802500000000002     30.727500000000003
              38               1               1     28.920000000000002     63.262500000000003     30.727500000000003
              39               1               1     28.920000000000002     77.722500000000011     45.187500000000000
              40               1               1     14.460000000000001     63.262500000000003     45.187500000000000
               6               1               2               8
              41               1               1     16.267500000000002     65.070000000000007     16.267500000000002
              42               1               1     30.727500000000003     79.530000000000001     16.267500000000002
              43               1               1     30.727500000000003     93.990000000000009     30.727500000000003
              44               1               1     16.267500000000002     79.530000000000001     30.727500000000003
              45               1               1     30.727500000000003     65.070000000000007     30.727500000000003
              46               1               1     45.187500000000000     79.530000000000001     30.727500000000003
              47               1               1     45.187500000000000     93.990000000000009     45.187500000000000
              48               1               1     30.727500000000003     79.530000000000001     45.187500000000000
               7               1               2               8
              49               1               1      0.000000000000000     65.070000000000007     32.535000000000004
              50               1               1     14.460000000000001     79.530000000000001     32.535000000000004
              51               1               1     14.460000000000001     93.990000000000009     46.995000000000005
              52               1               1      0.000000000000000     79.530000000000001     46.995000000000005
              53               1               1     14.460000000000001     65.070000000000007     46.995000000000005
              54               1               1     28.920000000000002     79.530000000000001     46.995000000000005
              55               1               1     28.920000000000002     93.990000000000009     61.455000000000005
              56               1               1     14.460000000000001     79.530000000000001     61.455000000000005
               8               1               2               8
              57               1               1      0.000000000000000      0.000000000000000      0.000000000000000
              58               1               1     14.460000000000001     14.460000000000001      0.000000000000000
              59               1               1     14.460000000000001     28.920000000000002     14.460000000000001
              60               1               1      0.000000000000000     14.460000000000001     14.460000000000001
              61               1               1     14.460000000000001      0.000000000000000     14.460000000000001
              62               1               1     28.920000000000002     14.460000000000001     14.460000000000001
              63               1               1     28.920000000000002     28.920000000000002     28.920000000000002
              64               1               1     14.460000000000001     14.460000000000001     28.920000000000002
               9               1               2               8
              65               1               1     16.267500000000002     16.267500000000002      0.000000000000000
              66               1               1     30.727500000000003     30.727500000000003      0.000000000000000
              67               1               1     30.727500000000003     45.187500000000000     14.460000000000001
              68               1               1     16.267500000000002     30.727500000000003     14.460000000000001
              69               1               1     30.727500000000003     16.267500000000002     14.460000000000001
              70               1               1     45.187500000000000     30.727500000000003     14.460000000000001
              71               1               1     45.187500000000000     45.187500000000000     28.920000000000002
              72               1               1     30.727500000000003     30.727500000000003     28.920000000000002
              10               1               2               8
              73               1               1     32.535000000000004     32.535000000000004      0.000000000000000
              74               1               1     46.995000000000005     46.995000000000005      0.000000000000000
              75               1               1     46.995000000000005     61.455000000000005     14.460000000000001
              76               1               1     32.535000000000004     46.995000000000005     14.460000000000001
              77               1               1     46.995000000000005     32.535000000000004     14.460000000000001
              78               1               1     61.455000000000005     46.995000000000005     14.460000000000001
              79               1               1     61.455000000000005     61.455000000000005     28.920000000000002
              80               1               1     46.995000000000005     46.995000000000005     28.920000000000002
              11               1               2               8
              81               1               1     48.802500000000002     48.802500000000002      0.000000000000000
              82               1               1     63.262500000000003     63.262500000000003      0.000000000000000
              83               1               1     63.262500000000003     77.722500000000011     14.460000000000001
              84               1               1     48.802500000000002     63.262500000000003     14.460000000000001
              85               1               1     63.262500000000003     48.802500000000002     14.460000000000001
              86               1               1     77.722500000000011     63.262500000000003     14.460000000000001
              87               1               1     77.722500000000011     77.722500000000011     28.920000000000002
              88               1               1     63.262500000000003     63.262500000000003     28.920000000000002
              12               1               2               8
              89               1               1     65.070000000000007     65.070000000000007      0.000000000000000
              90               1               1     79.530000000000001     79.530000000000001      0.000000000000000
              91               1               1     79.530000000000001     93.990000000000009     14.460000000000001
              92               1               1     65.070000000000007     79.530000000000001     14.460000000000001
              93               1               1     79.530000000000001     65.070000000000007     14.460000000000001
              94               1               1     93.990000000000009     79.530000000000001     14.460000000000001
              95               1               1     93.990000000000009     93.990000000000009     28.920000000000002
              96               1               1     79.530000000000001     79.530000000000001     28.920000000000002
              13               1               2               8
              97               1               1      0.000000000000000     16.267500000000002     16.267500000000002
              98               1               1     14.460000000000001     30.727500000000003     16.267500000000002
              99               1               1     14.460000000000001     45.187500000000000     30.727500000000003
             100               1               1      0.000000000000000     30.727500000000003     30.727500000000003
             101               1               1     14.460000000000001     16.267500000000002     30.727500000000003
             102               1               1     28.920000000000002     30.727500000000003     30.727500000000003
             103               1               1     28.920000000000002     45.187500000000000     45.187500000000000
             104               1               1     14.460000000000001     30.727500000000003     45.187500000000000
              14               1               2               8
             105               1               1     16.267500000000002     32.535000000000004     16.267500000000002
             106               1               1     30.727500000000003     46.995000000000005     16.267500000000002
             107               1               1     30.727500000000003     61.455000000000005     30.727500000000003
             108               1               1     16.267500000000002     46.995000000000005     30.727500000000003
             109               1               1     30.727500000000003     32.535000000000004     30.727500000000003
             110               1               1     45.187500000000000     46.995000000000005     30.727500000000003
             111               1               1     45.187500000000000     61.455000000000005     45.187500000000000
             112               1               1     30.727500000000003     46.995000000000005     45.187500000000000
              15               1               2               8
             113               1               1     32.535000000000004     48.802500000000002     16.267500000000002
             114               1               1     46.995000000000005     63.262500000000003     16.267500000000002
             115               1               1     46.995000000000005     77.722500000000011     30.727500000000003
             116               1               1     32.535000000000004     63.262500000000003     30.727500000000003
             117               1               1     46.995000000000005     48.802500000000002     30.727500000000003
             118               1               1     61.455000000000005     63.262500000000003     30.727500000000003
             119               1               1     61.455000000000005     77.722500000000011     45.187500000000000
             120               1               1     46.995000000000005     63.262500000000003     45.187500000000000
              16               1               2               8
             121               1               1     48.802500000000002     65.070000000000007     16.267500000000002
             122               1               1     63.262500000000003     79.530000000000001     16.267500000000002
             123               1               1     63.262500000000003     93.990000000000009     30.727500000000003
             124               1               1     48.802500000000002     79.530000000000001     30.727500000000003
             125               1               1     63.262500000000003     65.070000000000007     30.727500000000003
             126               1               1     77.722500000000011     79.530000000000001     30.727500000000003
             127               1               1     77.722500000000011     93.990000000000009     45.187500000000000
             128               1               1     63.262500000000003     79.530000000000001     45.187500000000000
              17               1               2               8
             129               1               1      0.000000000000000     32.535000000000004     32.535000000000004
             130               1               1     14.460000000000001     46.995000000000005     32.535000000000004
             131               1               1     14.460000000000001     61.455000000000005     46.995000000000005
             132               1               1      0.000000000000000     46.995000000000005     46.995000000000005
             133               1               1     14.460000000000001     32.535000000000004     46.995000000000005
             134               1               1     28.920000000000002     46.995000000000005     46.995000000000005
             135               1               1     28.920000000000002     61.455000000000005     61.455000000000005
             136               1               1     14.460000000000001     46.995000000000005     61.455000000000005
              18               1               2               8
             137               1               1     16.267500000000002     48.802500000000002     32.535000000000004
             138               1               1     30.727500000000003     63.262500000000003     32.535000000000004
             139               1               1     30.727500000000003     77.722500000000011     46.995000000000005
             140               1               1     16.267500000000002     63.262500000000003     46.995000000000005
             141               1               1     30.727500000000003     48.802500000000002     46.995000000000005
             142               1               1     45.187500000000000     63.262500000000003     46.995000000000005
             143               1               1     45.187500000000000     77.722500000000011     61.455000000000005
             144               1               1     30.727500000000003     63.262500000000003     61.455000000000005
              19               1               2               8
             145               1               1     32.535000000000004     65.070000000000007     32.535000000000004
             146               1               1     46.995000000000005     79.530000000000001     32.535000000000004
             147               1               1     46.995000000000005     93.990000000000009     46.995000000000005
             148               1               1     32.535000000000004     79.530000000000001     46.995000000000005
             149               1               1     46.995000000000005     65.070000000000007     46.995000000000005
             150               1               1     61.455000000000005     79.530000000000001     46.995000000000005
             151               1               1     61.455000000000005     93.990000000000009     61.455000000000005
             152               1               1     46.995000000000005     79.530000000000001     61.455000000000005
              20               1               2               8
             153               1               1      0.000000000000000     48.802500000000002     48.802500000000002
             154               1               1     14.460000000000001     63.262500000000003     48.802500000000002
             155               1               1     14.460000000000001     77.722500000000011     63.262500000000003
             156               1               1      0.000000000000000     63.262500000000003     63.262500000000003
             157               1               1     14.460000000000001     48.802500000000002     63.262500000000003
             158               1               1     28.920000000000002     63.262500000000003     63.262500000000003
             159               1               1     28.920000000000002     77.722500000000011     77.722500000000011
             160               1               1     14.460000000000001     63.262500000000003     77.722500000000011
              21               1               2               8
             161               1               1     16.267500000000002     65.070000000000007     48.802500000000002
             162               1               1     30.727500000000003     79.530000000000001     48.802500000000002
             163               1               1     30.727500000000003     93.990000000000009     63.262500000000003
             164               1               1     16.267500000000002     79.530000000000001     63.262500000000003
             165               1               1     30.727500000000003     65.070000000000007     63.262500000000003
             166               1               1     45.187500000000000     79.530000000000001     63.262500000000003
             167               1               1     45.187500000000000     93.990000000000009     77.722500000000011
             168               1               1     30.727500000000003     79.530000000000001     77.722500000000011
              22               1               2               8
             169               1               1      0.000000000000000     65.070000000000007     65.070000000000007
             170               1               1     14.460000000000001     79.530000000000001     65.070000000000007
             171               1               1     14.460000000000001     93.990000000000009     79.530000000000001
             172               1               1      0.000000000000000     79.530000000000001     79.530000000000001
             173               1               1     14.460000000000001     65.070000000000007     79.530000000000001
             174               1               1     28.920000000000002     79.530000000000001     79.530000000000001
             175               1               1     28.920000000000002     93.990000000000009     93.990000000000009
             176               1               1     14.460000000000001     79.530000000000001     93.990000000000009
              23               1               2               8
             177               1               1     32.535000000000004      0.000000000000000      0.000000000000000
             178               1               1     46.995000000000005     14.460000000000001      0.000000000000000
             179               1               1     46.995000000000005     28.920000000000002     14.460000000000001
             180               1               1     32.535000000000004     14.460000000000001     14.460000000000001
             181               1               1     46.995000000000005      0.000000000000000     14.460000000000001
             182               1               1     61.455000000000005     14.460000000000001     14.460000000000001
             183               1               1     61.455000000000005     28.920000000000002     28.920000000000002
             184               1               1     46.995000000000005     14.460000000000001     28.920000000000002
              24               1               2               8
             185               1               1     48.802500000000002     16.267500000000002      0.000000000000000
             186               1               1     63.262500000000003     30.727500000000003      0.000000000000000
             187               1               1     63.262500000000003     45.187500000000000     14.460000000000001
             188               1               1     48.802500000000002     30.727500000000003     14.460000000000001
             189               1               1     63.262500000000003     16.267500000000002     14.460000000000001
             190               1               1     77.722500000000011     30.727500000000003     14.460000000000001
             191               1               1     77.722500000000011     45.187500000000000     28.920000000000002
             192               1               1     63.262500000000003     30.727500000000003     28.920000000000002
              25               1               2               8
             193               1               1     65.070000000000007     32.535000000000004      0.000000000000000
             194               1               1     79.530000000000001     46.995000000000005      0.000000000000000
             195               1               1     79.530000000000001     61.455000000000005     14.460000000000001
             196               1               1     65.070000000000007     46.995000000000005     14.460000000000001
             197               1               1     79.530000000000001     32.535000000000004     14.460000000000001
             198               1               1     93.990000000000009     46.995000000000005     14.460000000000001
             199               1               1     93.990000000000009     61.455000000000005     28.920000000000002
             200               1               1     79.530000000000001     46.995000000000005     28.920000000000002
              26               1               2               8
             201               1               1     16.267500000000002      0.000000000000000     16.267500000000002
             202               1               1     30.727500000000003     14.460000000000001     16.267500000000002
             203               1               1     30.727500000000003     28.920000000000002     30.727500000000003
             204               1               1     16.267500000000002     14.460000000000001     30.727500000000003
             205               1               1     30.727500000000003      0.000000000000000     30.727500000000003
             206               1               1     45.187500000000000     14.460000000000001     30.727500000000003
             207               1               1     45.187500000000000     28.920000000000002     45.187500000000000
             208               1               1     30.727500000000003     14.460000000000001     45.187500000000000
              27               1               2               8
             209               1               1     32.535000000000004     16.267500000000002     16.267500000000002
             210               1               1     46.995000000000005     30.727500000000003     16.267500000000002
             211               1               1     46.995000000000005     45.187500000000000     30.727500000000003
             212               1               1     32.535000000000004     30.727500000000003     30.727500000000003
             213               1               1     46.995000000000005     16.267500000000002     30.727500000000003
             214               1               1     61.455000000000005     30.727500000000003     30.727500000000003
             215               1               1     61.455000000000005     45.187500000000000     45.187500000000000
             216               1               1     46.995000000000005     30.727500000000003     45.187500000000000
              28               1               2               8
             217               1               1     48.802500000000002     32.535000000000004     16.267500000000002
             218               1               1     63.262500000000003     46.995000000000005     16.267500000000002
             219               1               1     63.262500000000003     61.455000000000005     30.727500000000003
             220               1               1     48.802500000000002     46.995000000000005     30.727500000000003
             221               1               1     63.262500000000003     32.535000000000004     30.727500000000003
             222               1               1     77.722500000000011     46.995000000000005     30.727500000000003
             223               1               1     77.722500000000011     61.455000000000005     45.187500000000000
             224               1               1     63.262500000000003     46.995000000000005     45.187500000000000
              29               1               2               8
             225               1               1     65.070000000000007     48.802500000000002     16.267500000000002
             226               1               1     79.530000000000001     63.262500000000003     16.267500000000002
             227               1               1     79.530000000000001     77.722500000000011     30.727500000000003
             228               1               1     65.070000000000007     63.262500000000003     30.727500000000003
             229               1               1     79.530000000000001     48.802500000000002     30.727500000000003
             230               1               1     93.990000000000009     63.262500000000003     30.727500000000003
             231               1               1     93.990000000000009     77.722500000000011     45.187500000000000