time
               0      0.000000000000000
number of elements
               0
max interpo per element
               0
number of nodes
               0
max nodes per element and basis per nodes
               8               1
number of atoms
           13500
 masses: 
   63.545999999999999     
boundary 
ppp
box bound
     -0.903750000000000     53.321250000000006     -0.903750000000000     53.321250000000006     -0.903750000000000     53.321250000000006
box matrix
     54.225000000000009      0.000000000000000      0.000000000000000
      0.000000000000000     54.225000000000009      0.000000000000000
      0.000000000000000      0.000000000000000     54.225000000000009
atomistic domain
ia type_atom x y z
               1               1      0.000000000000000     50.609999999999999      0.000000000000000
               2               1      1.807500000000000     52.417500000000004      0.000000000000000
               3               1      0.000000000000000     52.417500000000004      1.807500000000000
               4               1      0.000000000000000     46.995000000000005      0.000000000000000
               5               1      1.807500000000000     48.802500000000002      0.000000000000000
               6               1      3.615000000000000     50.609999999999999      0.000000000000000
               7               1      5.422500000000000     52.417500000000004      0.000000000000000
               8               1      0.000000000000000     48.802500000000002      1.807500000000000
               9               1      1.807500000000000     50.609999999999999      1.807500000000000
              10               1      3.615000000000000     52.417500000000004      1.807500000000000
              11               1      0.000000000000000     50.609999999999999      3.615000000000000
              12               1      1.807500000000000     52.417500000000004      3.615000000000000
              13               1      0.000000000000000     52.417500000000004      5.422500000000000
              14               1      0.000000000000000     43.380000000000003      0.000000000000000
              15               1      1.807500000000000     45.187500000000000      0.000000000000000
              16               1      3.615000000000000     46.995000000000005      0.000000000000000
              17               1      5.422500000000000     48.802500000000002      0.000000000000000
              18               1      7.230000000000000     50.609999999999999      0.000000000000000
              19               1      9.037500000000001     52.417500000000004      0.000000000000000
              20               1      0.000000000000000     45.187500000000000      1.807500000000000
              21               1      1.807500000000000     46.995000000000005      1.807500000000000
              22               1      3.615000000000000     48.802500000000002      1.807500000000000
              23               1      5.422500000000000     50.609999999999999      1.807500000000000
              24               1      7.230000000000000     52.417500000000004      1.807500000000000
              25               1      0.000000000000000     46.995000000000005      3.615000000000000
              26               1      1.807500000000000     48.802500000000002      3.615000000000000
              27               1      3.615000000000000     50.609999999999999      3.615000000000000
              28               1      5.422500000000000     52.417500000000004      3.615000000000000
              29               1      0.000000000000000     48.802500000000002      5.422500000000000
              30               1      1.807500000000000     50.609999999999999      5.422500000000000
              31               1      3.615000000000000     52.417500000000004      5.422500000000000
              32               1      0.000000000000000     50.609999999999999      7.230000000000000
              33               1      1.807500000000000     52.417500000000004      7.230000000000000
              34               1      0.000000000000000     52.417500000000004      9.037500000000001
              35               1      0.000000000000000     39.765000000000001      0.000000000000000
              36               1      1.807500000000000     41.572500000000005      0.000000000000000
              37               1      3.615000000000000     43.380000000000003      0.000000000000000
              38               1      5.422500000000000     45.187500000000000      0.000000000000000
              39               1      7.230000000000000     46.995000000000005      0.000000000000000
              40               1      9.037500000000001     48.802500000000002      0.000000000000000
              41               1     10.845000000000001     50.609999999999999      0.000000000000000
              42               1     12.652500000000000     52.417500000000004      0.000000000000000
              43               1      0.000000000000000     41.572500000000005      1.807500000000000
              44               1      1.807500000000000     43.380000000000003      1.807500000000000
              45               1      3.615000000000000     45.187500000000000      1.807500000000000
              46               1      5.422500000000000     46.995000000000005      1.807500000000000
              47               1      7.230000000000000     48.802500000000002      1.807500000000000
              48               1      9.037500000000001     50.609999999999999      1.807500000000000
              49               1     10.845000000000001     52.417500000000004      1.807500000000000
              50               1      0.000000000000000     43.380000000000003      3.615000000000000
              51               1      1.807500000000000     45.187500000000000      3.615000000000000
              52               1      3.615000000000000     46.995000000000005      3.615000000000000
              53               1      5.422500000000000     48.802500000000002      3.615000000000000
              54               1      7.230000000000000     50.609999999999999      3.615000000000000
              55               1      9.037500000000001     52.417500000000004      3.615000000000000
              56               1      0.000000000000000     45.187500000000000      5.422500000000000
              57               1      1.807500000000000     46.995000000000005      5.422500000000000
              58               1      3.615000000000000     48.802500000000002      5.422500000000000
              59               1      5.422500000000000     50.609999999999999      5.422500000000000
              60               1      7.230000000000000     52.417500000000004      5.422500000000000
              61               1      0.000000000000000     46.995000000000005      7.230000000000000
              62               1      1.807500000000000     48.802500000000002      7.230000000000000
              63               1      3.615000000000000     50.609999999999999      7.230000000000000
              64               1      5.422500000000000     52.417500000000004      7.230000000000000
              65               1      0.000000000000000     48.802500000000002      9.037500000000001
              66               1      1.807500000000000     50.609999999999999      9.037500000000001
              67               1      3.615000000000000     52.417500000000004      9.037500000000001
              68               1      0.000000000000000     50.609999999999999     10.845000000000001
              69               1      1.807500000000000     52.417500000000004     10.845000000000001
              70               1      0.000000000000000     52.417500000000004     12.652500000000000
              71               1      0.000000000000000     36.150000000000006      0.000000000000000
              72               1      1.807500000000000     37.957500000000003      0.000000000000000
              73               1      3.615000000000000     39.765000000000001      0.000000000000000
              74               1      5.422500000000000     41.572500000000005      0.000000000000000
              75               1      7.230000000000000     43.380000000000003      0.000000000000000
              76               1      9.037500000000001     45.187500000000000      0.000000000000000
              77               1     10.845000000000001     46.995000000000005      0.000000000000000
              78               1     12.652500000000000     48.802500000000002      0.000000000000000
              79               1     14.460000000000001     50.609999999999999      0.000000000000000
              80               1     16.267500000000002     52.417500000000004      0.000000000000000
              81               1      0.000000000000000     37.957500000000003      1.807500000000000
              82               1      1.807500000000000     39.765000000000001      1.807500000000000
              83               1      3.615000000000000     41.572500000000005      1.807500000000000
              84               1      5.422500000000000     43.380000000000003      1.807500000000000
              85               1      7.230000000000000     45.187500000000000      1.807500000000000
              86               1      9.037500000000001     46.995000000000005      1.807500000000000
              87               1     10.845000000000001     48.802500000000002      1.807500000000000
              88               1     12.652500000000000     50.609999999999999      1.807500000000000
              89               1     14.460000000000001     52.417500000000004      1.807500000000000
              90               1      0.000000000000000     39.765000000000001      3.615000000000000
              91               1      1.807500000000000     41.572500000000005      3.615000000000000
              92               1      3.615000000000000     43.380000000000003      3.615000000000000
              93               1      5.422500000000000     45.187500000000000      3.615000000000000
              94               1      7.230000000000000     46.995000000000005      3.615000000000000
              95               1      9.037500000000001     48.802500000000002      3.615000000000000
              96               1     10.845000000000001     50.609999999999999      3.615000000000000
              97               1     12.652500000000000     52.417500000000004      3.615000000000000
              98               1      0.000000000000000     41.572500000000005      5.422500000000000
              99               1      1.807500000000000     43.380000000000003      5.422500000000000
             100               1      3.615000000000000     45.187500000000000      5.422500000000000
             101               1      5.422500000000000     46.995000000000005      5.422500000000000
             102               1      7.230000000000000     48.802500000000002      5.422500000000000
             103               1      9.037500000000001     50.609999999999999      5.422500000000000
             104               1     10.845000000000001     52.417500000000004      5.422500000000000
             105               1      0.000000000000000     43.380000000000003      7.230000000000000
             106               1      1.807500000000000     45.187500000000000      7.230000000000000
             107               1      3.615000000000000     46.995000000000005      7.230000000000000
             108               1      5.422500000000000     48.802500000000002      7.230000000000000
             109               1      7.230000000000000     50.609999999999999      7.230000000000000
             110               1      9.037500000000001     52.417500000000004      7.230000000000000
             111               1      0.000000000000000     45.187500000000000      9.037500000000001
             112               1      1.807500000000000     46.995000000000005      9.037500000000001
             113               1      3.615000000000000     48.802500000000002      9.037500000000001
             114               1      5.422500000000000     50.609999999999999      9.037500000000001
             115               1      7.230000000000000     52.417500000000004      9.037500000000001
             116               1      0.000000000000000     46.995000000000005     10.845000000000001
             117               1      1.807500000000000     48.802500000000002     10.845000000000001
             118               1      3.615000000000000     50.609999999999999     10.845000000000001
             119               1      5.422500000000000     52.417500000000004     10.845000000000001
             120               1      0.000000000000000     48.802500000000002     12.652500000000000
             121               1      1.807500000000000     50.609999999999999     12.652500000000000
             122               1      3.615000000000000     52.417500000000004     12.652500000000000
             123               1      0.000000000000000     50.609999999999999     14.460000000000001
             124               1      1.807500000000000     52.417500000000004     14.460000000000001
             125               1      0.000000000000000     52.417500000000004     16.267500000000002
             126               1      0.000000000000000     32.535000000000004      0.000000000000000
             127               1      1.807500000000000     34.342500000000001      0.000000000000000
             128               1      3.615000000000000     36.150000000000006      0.000000000000000
             129               1      5.422500000000000     37.957500000000003      0.000000000000000
             130               1      7.230000000000000     39.765000000000001      0.000000000000000
             131               1      9.037500000000001     41.572500000000005      0.000000000000000
             132               1     10.845000000000001     43.380000000000003      0.000000000000000
             133               1     12.652500000000000     45.187500000000000      0.000000000000000
             134               1     14.460000000000001     46.995000000000005      0.000000000000000
             135               1     16.267500000000002     48.802500000000002      0.000000000000000
             136               1     18.075000000000003     50.609999999999999      0.000000000000000
             137               1     19.882500000000000     52.417500000000004      0.000000000000000
             138               1      0.000000000000000     34.342500000000001      1.807500000000000
             139               1      1.807500000000000     36.150000000000006      1.807500000000000
             140               1      3.615000000000000     37.957500000000003      1.807500000000000
             141               1      5.422500000000000     39.765000000000001      1.807500000000000
             142               1      7.230000000000000     41.572500000000005      1.807500000000000
             143               1      9.037500000000001     43.380000000000003      1.807500000000000
             144               1     10.845000000000001     45.187500000000000      1.807500000000000
             145               1     12.652500000000000     46.995000000000005      1.807500000000000
             146               1     14.460000000000001     48.802500000000002      1.807500000000000
             147               1     16.267500000000002     50.609999999999999      1.807500000000000
             148               1     18.075000000000003     52.417500000000004      1.807500000000000
             149               1      0.000000000000000     36.150000000000006      3.615000000000000
             150               1      1.807500000000000     37.957500000000003      3.615000000000000
             151               1      3.615000000000000     39.765000000000001      3.615000000000000
             152               1      5.422500000000000     41.572500000000005      3.615000000000000
             153               1      7.230000000000000     43.380000000000003      3.615000000000000
             154               1      9.037500000000001     45.187500000000000      3.615000000000000
             155               1     10.845000000000001     46.995000000000005      3.615000000000000
             156               1     12.652500000000000     48.802500000000002      3.615000000000000
             157               1     14.460000000000001     50.609999999999999      3.615000000000000
             158               1     16.267500000000002     52.417500000000004      3.615000000000000
             159               1      0.000000000000000     37.957500000000003      5.422500000000000
             160               1      1.807500000000000     39.765000000000001      5.422500000000000
             161               1      3.615000000000000     41.572500000000005      5.422500000000000
             162               1      5.422500000000000     43.380000000000003      5.422500000000000
             163               1      7.230000000000000     45.187500000000000      5.422500000000000
             164               1      9.037500000000001     46.995000000000005      5.422500000000000
             165               1     10.845000000000001     48.802500000000002      5.422500000000000
             166               1     12.652500000000000     50.609999999999999      5.422500000000000
             167               1     14.460000000000001     52.417500000000004      5.422500000000000
             168               1      0.000000000000000     39.765000000000001      7.230000000000000
             169               1      1.807500000000000     41.572500000000005      7.230000000000000
             170               1      3.615000000000000     43.380000000000003      7.230000000000000
             171               1      5.422500000000000     45.187500000000000      7.230000000000000
             172               1      7.230000000000000     46.995000000000005      7.230000000000000
             173               1      9.037500000000001     48.802500000000002      7.230000000000000
             174               1     10.845000000000001     50.609999999999999      7.230000000000000
             175               1     12.652500000000000     52.417500000000004      7.230000000000000
             176               1      0.000000000000000     41.572500000000005      9.037500000000001
             177               1      1.807500000000000     43.380000000000003      9.037500000000001
             178               1      3.615000000000000     45.187500000000000      9.037500000000001
             179               1      5.422500000000000     46.995000000000005      9.037500000000001
             180               1      7.230000000000000     48.802500000000002      9.037500000000001
             181               1      9.037500000000001     50.609999999999999      9.037500000000001
             182               1     10.845000000000001     52.417500000000004      9.037500000000001
             183               1      0.000000000000000     43.380000000000003     10.845000000000001
             184               1      1.807500000000000     45.187500000000000     10.845000000000001
             185               1      3.615000000000000     46.995000000000005     10.845000000000001
             186               1      5.422500000000000     48.802500000000002     10.845000000000001
             187               1      7.230000000000000     50.609999999999999     10.845000000000001
             188               1      9.037500000000001     52.417500000000004     10.845000000000001
             189               1      0.000000000000000     45.187500000000000     12.652500000000000
             190               1      1.807500000000000     46.995000000000005     12.652500000000000
             191               1      3.615000000000000     48.802500000000002     12.652500000000000
             192               1      5.422500000000000     50.609999999999999     12.652500000000000
             193               1      7.230000000000000     52.417500000000004     12.652500000000000
             194               1      0.000000000000000     46.995000000000005     14.460000000000001
             195               1      1.807500000000000     48.802500000000002     14.460000000000001
             196               1      3.615000000000000     50.609999999999999     14.460000000000001
             197               1      5.422500000000000     52.417500000000004     14.460000000000001
             198               1      0.000000000000000     48.802500000000002     16.267500000000002
             199               1      1.807500000000000     50.609999999999999     16.267500000000002
             200               1      3.615000000000000     52.417500000000004     16.267500000000002
             201               1      0.000000000000000     50.609999999999999     18.075000000000003
             202               1      1.807500000000000     52.417500000000004     18.075000000000003
             203               1      0.000000000000000     52.417500000000004     19.882500000000000
             204               1      0.000000000000000     28.920000000000002      0.000000000000000
             205               1      1.807500000000000     30.727500000000003      0.000000000000000
             206               1      3.615000000000000     32.535000000000004      0.000000000000000
             207               1      5.422500000000000     34.342500000000001      0.000000000000000
             208               1      7.230000000000000     36.150000000000006      0.000000000000000
             209               1      9.037500000000001     37.957500000000003      0.000000000000000
             210               1     10.845000000000001     39.765000000000001      0.000000000000000
             211               1     12.652500000000000     41.572500000000005      0.000000000000000
             212               1     14.460000000000001     43.380000000000003      0.000000000000000
             213               1     16.267500000000002     45.187500000000000      0.000000000000000
             214               1     18.075000000000003     46.995000000000005      0.000000000000000
             215               1     19.882500000000000     48.802500000000002      0.000000000000000
             216               1     21.690000000000001     50.609999999999999      0.000000000000000
             217               1     23.497500000000002     52.417500000000004      0.000000000000000
             218               1      0.000000000000000     30.727500000000003      1.807500000000000
             219               1      1.807500000000000     32.535000000000004      1.807500000000000
             220               1      3.615000000000000     34.342500000000001      1.807500000000000
             221               1      5.422500000000000     36.150000000000006      1.807500000000000
             222               1      7.230000000000000     37.957500000000003      1.807500000000000
             223               1      9.037500000000001     39.765000000000001      1.807500000000000
             224               1     10.845000000000001     41.572500000000005      1.807500000000000
             225               1     12.652500000000000     43.380000000000003      1.807500000000000
             226               1     14.460000000000001     45.187500000000000      1.807500000000000
             227               1     16.267500000000002     46.995000000000005      1.807500000000000
             228               1     18.075000000000003     48.802500000000002      1.807500000000000
             229               1     19.882500000000000     50.609999999999999      1.807500000000000
             230               1     21.690000000000001     52.417500000000004      1.807500000000000
             231               1      0.000000000000000     32.535000000000004      3.615000000000000
             232               1      1.807500000000000     34.342500000000001      3.615000000000000
             233               1      3.615000000000000     36.150000000000006      3.615000000000000
             234               1      5.422500000000000     37.957500000000003      3.615000000000000
             235               1      7.230000000000000     39.765000000000001      3.615000000000000
             236               1      9.037500000000001     41.572500000000005      3.615000000000000
             237               1     10.845000000000001     43.380000000000003      3.615000000000000
             238               1     12.652500000000000     45.187500000000000      3.615000000000000
             239               1     14.460000000000001     46.995000000000005      3.615000000000000
             240               1     16.267500000000002     48.802500000000002      3.615000000000000
             241               1     18.075000000000003     50.609999999999999      3.615000000000000
             242               1     19.882500000000000     52.417500000000004      3.615000000000000
             243               1      0.000000000000000     34.342500000000001      5.422500000000000
             244               1      1.807500000000000     36.150000000000006      5.422500000000000
             245               1      3.615000000000000     37.957500000000003      5.422500000000000
             246               1      5.422500000000000     39.765000000000001      5.422500000000000
             247               1      7.230000000000000     41.572500000000005      5.422500000000000
             248               1      9.037500000000001     43.380000000000003      5.422500000000000
             249               1     10.845000000000001     45.187500000000000      5.422500000000000
             250               1     12.652500000000000     46.995000000000005      5.422500000000000
             251               1     14.460000000000001     48.802500000000002      5.422500000000000
             252               1     16.267500000000002     50.609999999999999      5.422500000000000
             253               1     18.075000000000003     52.417500000000004      5.422500000000000
             254               1      0.000000000000000     36.150000000000006      7.230000000000000
             255               1      1.807500000000000     37.957500000000003      7.230000000000000
             256               1      3.615000000000000     39.765000000000001      7.230000000000000
             257               1      5.422500000000000     41.572500000000005      7.230000000000000
             258               1      7.230000000000000     43.380000000000003      7.230000000000000
             259               1      9.037500000000001     45.187500000000000      7.230000000000000
             260               1     10.845000000000001     46.995000000000005      7.230000000000000
             261               1     12.652500000000000     48.802500000000002      7.230000000000000
             262               1     14.460000000000001     50.609999999999999      7.230000000000000
             263               1     16.267500000000002     52.417500000000004      7.230000000000000
             264               1      0.000000000000000     37.957500000000003      9.037500000000001
             265               1      1.807500000000000     39.765000000000001      9.037500000000001
             266               1      3.615000000000000     41.572500000000005      9.037500000000001
             267               1      5.422500000000000     43.380000000000003      9.037500000000001
             268               1      7.230000000000000     45.187500000000000      9.037500000000001
             269               1      9.037500000000001     46.995000000000005      9.037500000000001
             270               1     10.845000000000001     48.802500000000002      9.037500000000001
             271               1     12.652500000000000     50.609999999999999      9.037500000000001
             272               1     14.460000000000001     52.417500000000004      9.037500000000001
             273               1      0.000000000000000     39.765000000000001     10.845000000000001
             274               1      1.807500000000000     41.572500000000005     10.845000000000001
             275               1      3.615000000000000     43.380000000000003     10.845000000000001
             276               1      5.422500000000000     45.187500000000000     10.845000000000001
             277               1      7.230000000000000     46.995000000000005     10.845000000000001
             278               1      9.037500000000001     48.802500000000002     10.845000000000001
             279               1     10.845000000000001     50.609999999999999     10.845000000000001
             280               1     12.652500000000000     52.417500000000004     10.845000000000001
             281               1      0.000000000000000     41.572500000000005     12.652500000000000
             282               1      1.807500000000000     43.380000000000003     12.652500000000000
             283               1      3.615000000000000     45.187500000000000     12.652500000000000
             284               1      5.422500000000000     46.995000000000005     12.652500000000000
             285               1      7.230000000000000     48.802500000000002     12.652500000000000
             286               1      9.037500000000001     50.609999999999999     12.652500000000000
             287               1     10.845000000000001     52.417500000000004     12.652500000000000