time
               0      0.000000000000000
number of elements
               0
max interpo per element
               8
number of nodes
               0
max nodes per element and basis per nodes
               8               1
number of atoms
              2
 masses: 
   63.545999999999999     58.693400000000000
boundary 
sss
box bound
     -10     10   -10  10   -10  10 
box matrix
      16.00000000000000      0.000000000000000      0.000000000000000
      0.000000000000000      16.00000000000000      0.000000000000000
      0.000000000000000      0.000000000000000     16.000000000000000
atomistic domain
ia type_atom x y z
              45               1      0.000000000000000      0.000000000000000      0.000000000000000
              47               2      0.000000000000000      0.100000000000000      0.000000000000000
